   30   30  500    1
  0.1153243E+02  0.5534129E-09  0.7826440E-09  0.8453521E-09  0.5000000E-15
  1.000000000000000E-004
  CAR 
 BInN                                    
    250     19    196
 
  0.0000000E+00  0.0000000E+00  0.0000000E+00  0.2777778E-01
    1      -10.292372   1.000000
    2       -9.610328   1.000000
    3       -9.516370   1.000000
    4       -9.392106   1.000000
    5       -9.294284   1.000000
    6       -9.275428   1.000000
    7       -9.219396   1.000000
    8       -9.210951   1.000000
    9       -9.160212   1.000000
   10       -9.082434   1.000000
   11       -8.933595   1.000000
   12       -8.878999   1.000000
   13       -8.863662   1.000000
   14       -8.833996   1.000000
   15       -8.492294   1.000000
   16       -7.780458   1.000000
   17       -7.767592   1.000000
   18       -7.759105   1.000000
   19       -7.746405   1.000000
   20       -7.743484   1.000000
   21       -7.730597   1.000000
   22       -7.712022   1.000000
   23       -7.706691   1.000000
   24       -7.697312   1.000000
   25       -7.685912   1.000000
   26       -7.685351   1.000000
   27       -7.674532   1.000000
   28       -7.656942   1.000000
   29       -7.652731   1.000000
   30       -7.647287   1.000000
   31       -7.639290   1.000000
   32       -7.621836   1.000000
   33       -7.612363   1.000000
   34       -7.601859   1.000000
   35       -7.596271   1.000000
   36       -7.582428   1.000000
   37       -7.575894   1.000000
   38       -7.568969   1.000000
   39       -7.560160   1.000000
   40       -7.557380   1.000000
   41       -7.546108   1.000000
   42       -7.536977   1.000000
   43       -7.527921   1.000000
   44       -7.521140   1.000000
   45       -7.511891   1.000000
   46       -7.502320   1.000000
   47       -7.487611   1.000000
   48       -7.482383   1.000000
   49       -7.477954   1.000000
   50       -7.473723   1.000000
   51       -7.448137   1.000000
   52       -7.444150   1.000000
   53       -7.429167   1.000000
   54       -7.414286   1.000000
   55       -7.401576   1.000000
   56       -7.395361   1.000000
   57       -7.379907   1.000000
   58       -7.374275   1.000000
   59       -7.359890   1.000000
   60       -7.351033   1.000000
   61       -7.336396   1.000000
   62       -7.292157   1.000000
   63       -7.247448   1.000000
   64       -7.222149   1.000000
   65       -7.188350   1.000000
   66       -7.157712   1.000000
   67       -7.089791   1.000000
   68       -7.001633   1.000000
   69       -6.937920   1.000000
   70       -6.800328   1.000000
   71       -6.539983   1.000000
   72       -6.407318   1.000000
   73       -6.402442   1.000000
   74       -6.147933   1.000000
   75       -5.878489   1.000000
   76       -5.762921   1.000000
   77       -5.711635   1.000000
   78       -5.549126   1.000000
   79       -5.411282   1.000000
   80       -5.091662   1.000000
   81       -1.346291   1.000000
   82       -1.014585   1.000000
   83       -0.517100   1.000000
   84       -0.398212   1.000000
   85       -0.168385   1.000000
   86        0.139834   1.000000
   87        0.213595   1.000000
   88        0.264969   1.000000
   89        0.390337   1.000000
   90        0.601050   1.000000
   91        0.707543   1.000000
   92        0.791087   1.000000
   93        1.021155   1.000000
   94        1.321256   1.000000
   95        1.437451   1.000000
   96        1.578943   1.000000
   97        1.745879   1.000000
   98        1.817172   1.000000
   99        1.988746   1.000000
  100        2.197791   1.000000
  101        2.563654   1.000000
  102        2.737966   1.000000
  103        2.969162   1.000000
  104        3.143515   1.000000
  105        3.386883   1.000000
  106        3.524168   1.000000
  107        3.600260   1.000000
  108        3.659987   1.000000
  109        3.752703   1.000000
  110        3.857844   1.000000
  111        4.000882   1.000000
  112        4.180939   1.000000
  113        4.254777   1.000000
  114        4.371440   1.000000
  115        4.416840   1.000000
  116        4.473817   1.000000
  117        4.676759   1.000000
  118        4.829231   1.000000
  119        4.903502   1.000000
  120        5.119844   1.000000
  121        5.293583   1.000000
  122        5.525621   1.000000
  123        5.799486   1.000000
  124        5.895527   1.000000
  125        5.971106   1.000000
  126        7.272114   0.000000
  127        9.243894   0.000000
  128       10.113359   0.000000
  129       10.343169   0.000000
  130       10.376659   0.000000
  131       10.641849   0.000000
  132       10.749324   0.000000
  133       10.825880   0.000000
  134       10.963020   0.000000
  135       11.238857   0.000000
  136       11.529216   0.000000
  137       11.564506   0.000000
  138       11.715632   0.000000
  139       11.810982   0.000000
  140       12.097637   0.000000
  141       12.315340   0.000000
  142       12.656144   0.000000
  143       12.938650   0.000000
  144       13.015751   0.000000
  145       13.211938   0.000000
  146       13.396708   0.000000
  147       13.659866   0.000000
  148       13.809057   0.000000
  149       13.950717   0.000000
  150       14.026325   0.000000
  151       14.372451   0.000000
  152       14.426296   0.000000
  153       14.611745   0.000000
  154       14.708068   0.000000
  155       14.942835   0.000000
  156       15.033093   0.000000
  157       15.140488   0.000000
  158       15.262487   0.000000
  159       15.470471   0.000000
  160       15.632979   0.000000
  161       15.765797   0.000000
  162       15.835489   0.000000
  163       15.882933   0.000000
  164       16.010689   0.000000
  165       16.392395   0.000000
  166       16.514061   0.000000
  167       16.634511   0.000000
  168       16.706948   0.000000
  169       16.840288   0.000000
  170       16.943934   0.000000
  171       17.144223   0.000000
  172       17.244483   0.000000
  173       17.453292   0.000000
  174       17.525699   0.000000
  175       17.649477   0.000000
  176       17.681028   0.000000
  177       17.835655   0.000000
  178       18.009174   0.000000
  179       18.092601   0.000000
  180       18.241946   0.000000
  181       18.368977   0.000000
  182       18.710478   0.000000
  183       18.838443   0.000000
  184       19.109273   0.000000
  185       19.175134   0.000000
  186       19.328450   0.000000
  187       19.434748   0.000000
  188       19.957101   0.000000
  189       20.189524   0.000000
  190       20.276081   0.000000
  191       20.529320   0.000000
  192       20.733879   0.000000
  193       20.940203   0.000000
  194       21.155439   0.000000
  195       21.512497   0.000000
  196       21.610367   0.000000
 
  0.2500000E+00  0.0000000E+00  0.6938894E-17  0.5555556E-01
    1      -10.150633   1.000000
    2       -9.593644   1.000000
    3       -9.502850   1.000000
    4       -9.403924   1.000000
    5       -9.299407   1.000000
    6       -9.261785   1.000000
    7       -9.225831   1.000000
    8       -9.180893   1.000000
    9       -9.162412   1.000000
   10       -9.088436   1.000000
   11       -8.927602   1.000000
   12       -8.898662   1.000000
   13       -8.872381   1.000000
   14       -8.835325   1.000000
   15       -8.499233   1.000000
   16       -7.772291   1.000000
   17       -7.757475   1.000000
   18       -7.751534   1.000000
   19       -7.744867   1.000000
   20       -7.733795   1.000000
   21       -7.723478   1.000000
   22       -7.710571   1.000000
   23       -7.705508   1.000000
   24       -7.693105   1.000000
   25       -7.685474   1.000000
   26       -7.676329   1.000000
   27       -7.669082   1.000000
   28       -7.657747   1.000000
   29       -7.648974   1.000000
   30       -7.642141   1.000000
   31       -7.637337   1.000000
   32       -7.628126   1.000000
   33       -7.618084   1.000000
   34       -7.602578   1.000000
   35       -7.594559   1.000000
   36       -7.589249   1.000000
   37       -7.578689   1.000000
   38       -7.572555   1.000000
   39       -7.561291   1.000000
   40       -7.553423   1.000000
   41       -7.548194   1.000000
   42       -7.542407   1.000000
   43       -7.525992   1.000000
   44       -7.515485   1.000000
   45       -7.511010   1.000000
   46       -7.495487   1.000000
   47       -7.486306   1.000000
   48       -7.483773   1.000000
   49       -7.474812   1.000000
   50       -7.463509   1.000000
   51       -7.452587   1.000000
   52       -7.439627   1.000000
   53       -7.430609   1.000000
   54       -7.416499   1.000000
   55       -7.403910   1.000000
   56       -7.390910   1.000000
   57       -7.380385   1.000000
   58       -7.366254   1.000000
   59       -7.357343   1.000000
   60       -7.337807   1.000000
   61       -7.329417   1.000000
   62       -7.288340   1.000000
   63       -7.234835   1.000000
   64       -7.217546   1.000000
   65       -7.189678   1.000000
   66       -7.144902   1.000000
   67       -7.028998   1.000000
   68       -6.961881   1.000000
   69       -6.873708   1.000000
   70       -6.793564   1.000000
   71       -6.651291   1.000000
   72       -6.421809   1.000000
   73       -6.298808   1.000000
   74       -6.224628   1.000000
   75       -6.153739   1.000000
   76       -5.974938   1.000000
   77       -5.835114   1.000000
   78       -5.658349   1.000000
   79       -5.548371   1.000000
   80       -5.307029   1.000000
   81       -1.013690   1.000000
   82       -0.909507   1.000000
   83       -0.450496   1.000000
   84       -0.275806   1.000000
   85       -0.111286   1.000000
   86        0.037042   1.000000
   87        0.262551   1.000000
   88        0.369777   1.000000
   89        0.395694   1.000000
   90        0.505992   1.000000
   91        0.639813   1.000000
   92        0.763465   1.000000
   93        0.978909   1.000000
   94        1.055616   1.000000
   95        1.750525   1.000000
   96        1.962281   1.000000
   97        2.066367   1.000000
   98        2.162847   1.000000
   99        2.383044   1.000000
  100        2.504028   1.000000
  101        2.686297   1.000000
  102        2.880614   1.000000
  103        3.010731   1.000000
  104        3.157978   1.000000
  105        3.265857   1.000000
  106        3.403182   1.000000
  107        3.451598   1.000000
  108        3.625450   1.000000
  109        3.718746   1.000000
  110        3.847492   1.000000
  111        3.970574   1.000000
  112        4.058842   1.000000
  113        4.220256   1.000000
  114        4.402856   1.000000
  115        4.427503   1.000000
  116        4.567900   1.000000
  117        4.637881   1.000000
  118        4.766882   1.000000
  119        4.812403   1.000000
  120        4.957778   1.000000
  121        5.128923   1.000000
  122        5.260952   1.000000
  123        5.333447   1.000000
  124        5.601434   1.000000
  125        5.816878   1.000000
  126        8.247246   0.000000
  127        9.335091   0.000000
  128        9.794473   0.000000
  129       10.198078   0.000000
  130       10.359469   0.000000
  131       10.530453   0.000000
  132       10.657045   0.000000
  133       10.791521   0.000000
  134       11.081877   0.000000
  135       11.146408   0.000000
  136       11.418196   0.000000
  137       11.698579   0.000000
  138       11.981647   0.000000
  139       12.022843   0.000000
  140       12.332551   0.000000
  141       12.410546   0.000000
  142       12.635069   0.000000
  143       12.773994   0.000000
  144       12.838195   0.000000
  145       13.043102   0.000000
  146       13.153632   0.000000
  147       13.437151   0.000000
  148       13.729364   0.000000
  149       13.877506   0.000000
  150       13.917553   0.000000
  151       14.196918   0.000000
  152       14.365449   0.000000
  153       14.421798   0.000000
  154       14.557554   0.000000
  155       14.741237   0.000000
  156       14.981350   0.000000
  157       15.083342   0.000000
  158       15.265816   0.000000
  159       15.533081   0.000000
  160       15.675090   0.000000
  161       15.751840   0.000000
  162       15.928072   0.000000
  163       16.003139   0.000000
  164       16.154398   0.000000
  165       16.271781   0.000000
  166       16.370566   0.000000
  167       16.561087   0.000000
  168       16.674814   0.000000
  169       16.760438   0.000000
  170       16.900935   0.000000
  171       16.944794   0.000000
  172       17.114544   0.000000
  173       17.240712   0.000000
  174       17.385759   0.000000
  175       17.543630   0.000000
  176       17.627440   0.000000
  177       17.850809   0.000000
  178       18.022924   0.000000
  179       18.122639   0.000000
  180       18.252041   0.000000
  181       18.454956   0.000000
  182       18.689326   0.000000
  183       18.746561   0.000000
  184       19.111817   0.000000
  185       19.185984   0.000000
  186       19.418485   0.000000
  187       19.585532   0.000000
  188       19.828250   0.000000
  189       19.924629   0.000000
  190       20.301423   0.000000
  191       20.591882   0.000000
  192       20.887759   0.000000
  193       21.099403   0.000000
  194       21.281252   0.000000
  195       21.420244   0.000000
  196       21.627385   0.000000
 
  0.5000000E+00  0.0000000E+00  0.1387779E-16  0.2777778E-01
    1       -9.921374   1.000000
    2       -9.672057   1.000000
    3       -9.470061   1.000000
    4       -9.410847   1.000000
    5       -9.312778   1.000000
    6       -9.271144   1.000000
    7       -9.209887   1.000000
    8       -9.175715   1.000000
    9       -9.134921   1.000000
   10       -9.102253   1.000000
   11       -8.949975   1.000000
   12       -8.899907   1.000000
   13       -8.879063   1.000000
   14       -8.833963   1.000000
   15       -8.507094   1.000000
   16       -7.780232   1.000000
   17       -7.759552   1.000000
   18       -7.742061   1.000000
   19       -7.726326   1.000000
   20       -7.717953   1.000000
   21       -7.712025   1.000000
   22       -7.710320   1.000000
   23       -7.704337   1.000000
   24       -7.689379   1.000000
   25       -7.678512   1.000000
   26       -7.672314   1.000000
   27       -7.660677   1.000000
   28       -7.655203   1.000000
   29       -7.642696   1.000000
   30       -7.640929   1.000000
   31       -7.629134   1.000000
   32       -7.624981   1.000000
   33       -7.612278   1.000000
   34       -7.604111   1.000000
   35       -7.597526   1.000000
   36       -7.590243   1.000000
   37       -7.580927   1.000000
   38       -7.573043   1.000000
   39       -7.563662   1.000000
   40       -7.557994   1.000000
   41       -7.545525   1.000000
   42       -7.543863   1.000000
   43       -7.532149   1.000000
   44       -7.525545   1.000000
   45       -7.506836   1.000000
   46       -7.493289   1.000000
   47       -7.485761   1.000000
   48       -7.480465   1.000000
   49       -7.475133   1.000000
   50       -7.459765   1.000000
   51       -7.447928   1.000000
   52       -7.442955   1.000000
   53       -7.435330   1.000000
   54       -7.410962   1.000000
   55       -7.399466   1.000000
   56       -7.387154   1.000000
   57       -7.377925   1.000000
   58       -7.365865   1.000000
   59       -7.353574   1.000000
   60       -7.322581   1.000000
   61       -7.308092   1.000000
   62       -7.298581   1.000000
   63       -7.286733   1.000000
   64       -7.214856   1.000000
   65       -7.211628   1.000000
   66       -7.168918   1.000000
   67       -7.130081   1.000000
   68       -6.779478   1.000000
   69       -6.731086   1.000000
   70       -6.611949   1.000000
   71       -6.593184   1.000000
   72       -6.515849   1.000000
   73       -6.396214   1.000000
   74       -6.311247   1.000000
   75       -6.173981   1.000000
   76       -6.058249   1.000000
   77       -5.981996   1.000000
   78       -5.923739   1.000000
   79       -5.748036   1.000000
   80       -5.647961   1.000000
   81       -0.676071   1.000000
   82       -0.635656   1.000000
   83       -0.429250   1.000000
   84       -0.344630   1.000000
   85       -0.213376   1.000000
   86        0.039075   1.000000
   87        0.187537   1.000000
   88        0.374699   1.000000
   89        0.522968   1.000000
   90        0.550857   1.000000
   91        0.643331   1.000000
   92        0.746748   1.000000
   93        0.878431   1.000000
   94        1.571347   1.000000
   95        1.990864   1.000000
   96        2.317513   1.000000
   97        2.334854   1.000000
   98        2.415567   1.000000
   99        2.515984   1.000000
  100        2.683651   1.000000
  101        2.745370   1.000000
  102        2.962335   1.000000
  103        3.049724   1.000000
  104        3.076503   1.000000
  105        3.108090   1.000000
  106        3.313181   1.000000
  107        3.422369   1.000000
  108        3.531974   1.000000
  109        3.819524   1.000000
  110        3.865079   1.000000
  111        3.947202   1.000000
  112        3.962948   1.000000
  113        4.258532   1.000000
  114        4.285673   1.000000
  115        4.332085   1.000000
  116        4.425246   1.000000
  117        4.532448   1.000000
  118        4.680307   1.000000
  119        4.786812   1.000000
  120        4.871842   1.000000
  121        5.009055   1.000000
  122        5.132731   1.000000
  123        5.287608   1.000000
  124        5.429382   1.000000
  125        5.578931   1.000000
  126        8.932246   0.000000
  127        9.162777   0.000000
  128        9.633926   0.000000
  129        9.898583   0.000000
  130       10.214642   0.000000
  131       10.300396   0.000000
  132       10.747537   0.000000
  133       10.919089   0.000000
  134       11.091904   0.000000
  135       11.526938   0.000000
  136       11.696178   0.000000
  137       11.738012   0.000000
  138       11.779918   0.000000
  139       12.146771   0.000000
  140       12.227419   0.000000
  141       12.307230   0.000000
  142       12.618935   0.000000
  143       12.743053   0.000000
  144       12.954003   0.000000
  145       13.017518   0.000000
  146       13.113914   0.000000
  147       13.423854   0.000000
  148       13.546815   0.000000
  149       13.748865   0.000000
  150       13.868204   0.000000
  151       14.059530   0.000000
  152       14.275707   0.000000
  153       14.344022   0.000000
  154       14.487452   0.000000
  155       14.672773   0.000000
  156       14.878289   0.000000
  157       15.066501   0.000000
  158       15.093815   0.000000
  159       15.212987   0.000000
  160       15.321791   0.000000
  161       15.502650   0.000000
  162       15.731545   0.000000
  163       15.827675   0.000000
  164       16.115249   0.000000
  165       16.160324   0.000000
  166       16.353156   0.000000
  167       16.482727   0.000000
  168       16.656994   0.000000
  169       16.704905   0.000000
  170       16.877640   0.000000
  171       17.038370   0.000000
  172       17.048157   0.000000
  173       17.325369   0.000000
  174       17.346291   0.000000
  175       17.550181   0.000000
  176       17.762801   0.000000
  177       17.967319   0.000000
  178       18.222743   0.000000
  179       18.344155   0.000000
  180       18.606675   0.000000
  181       18.617298   0.000000
  182       18.746576   0.000000
  183       18.848427   0.000000
  184       19.006468   0.000000
  185       19.467052   0.000000
  186       19.518013   0.000000
  187       19.673328   0.000000
  188       19.832623   0.000000
  189       20.167582   0.000000
  190       20.371710   0.000000
  191       20.480426   0.000000
  192       20.583086   0.000000
  193       20.807948   0.000000
  194       20.935596   0.000000
  195       21.202425   0.000000
  196       21.344787   0.000000
 
  0.0000000E+00  0.3333333E+00  0.2775558E-16  0.5555556E-01
    1      -10.185889   1.000000
    2       -9.733200   1.000000
    3       -9.523100   1.000000
    4       -9.406393   1.000000
    5       -9.307642   1.000000
    6       -9.269661   1.000000
    7       -9.223590   1.000000
    8       -9.208015   1.000000
    9       -9.159556   1.000000
   10       -9.075252   1.000000
   11       -8.922349   1.000000
   12       -8.889344   1.000000
   13       -8.856735   1.000000
   14       -8.830403   1.000000
   15       -8.493577   1.000000
   16       -7.774460   1.000000
   17       -7.762976   1.000000
   18       -7.750957   1.000000
   19       -7.744455   1.000000
   20       -7.737907   1.000000
   21       -7.725149   1.000000
   22       -7.716764   1.000000
   23       -7.706011   1.000000
   24       -7.692444   1.000000
   25       -7.685422   1.000000
   26       -7.680267   1.000000
   27       -7.673227   1.000000
   28       -7.661129   1.000000
   29       -7.652129   1.000000
   30       -7.637843   1.000000
   31       -7.632795   1.000000
   32       -7.627431   1.000000
   33       -7.622259   1.000000
   34       -7.610052   1.000000
   35       -7.605442   1.000000
   36       -7.590855   1.000000
   37       -7.583943   1.000000
   38       -7.572803   1.000000
   39       -7.565888   1.000000
   40       -7.561213   1.000000
   41       -7.548749   1.000000
   42       -7.538287   1.000000
   43       -7.533034   1.000000
   44       -7.526345   1.000000
   45       -7.522767   1.000000
   46       -7.500555   1.000000
   47       -7.493302   1.000000
   48       -7.487079   1.000000
   49       -7.476606   1.000000
   50       -7.465949   1.000000
   51       -7.454786   1.000000
   52       -7.440390   1.000000
   53       -7.431786   1.000000
   54       -7.416562   1.000000
   55       -7.409292   1.000000
   56       -7.396227   1.000000
   57       -7.384435   1.000000
   58       -7.363195   1.000000
   59       -7.351840   1.000000
   60       -7.338704   1.000000
   61       -7.334527   1.000000
   62       -7.328091   1.000000
   63       -7.288636   1.000000
   64       -7.241321   1.000000
   65       -7.217370   1.000000
   66       -7.182117   1.000000
   67       -7.147765   1.000000
   68       -7.097638   1.000000
   69       -6.982966   1.000000
   70       -6.662320   1.000000
   71       -6.452717   1.000000
   72       -6.311956   1.000000
   73       -6.229960   1.000000
   74       -6.094658   1.000000
   75       -5.916518   1.000000
   76       -5.767866   1.000000
   77       -5.650236   1.000000
   78       -5.594918   1.000000
   79       -5.358631   1.000000
   80       -5.099877   1.000000
   81       -1.485045   1.000000
   82       -0.993220   1.000000
   83       -0.832306   1.000000
   84       -0.547765   1.000000
   85       -0.476931   1.000000
   86       -0.148687   1.000000
   87        0.087605   1.000000
   88        0.244166   1.000000
   89        0.448285   1.000000
   90        0.494793   1.000000
   91        0.911330   1.000000
   92        1.117430   1.000000
   93        1.220866   1.000000
   94        1.426555   1.000000
   95        1.652456   1.000000
   96        1.769742   1.000000
   97        2.022724   1.000000
   98        2.169601   1.000000
   99        2.328119   1.000000
  100        2.478855   1.000000
  101        2.628028   1.000000
  102        2.742848   1.000000
  103        2.990513   1.000000
  104        3.020931   1.000000
  105        3.193577   1.000000
  106        3.302069   1.000000
  107        3.399004   1.000000
  108        3.588851   1.000000
  109        3.730802   1.000000
  110        3.754591   1.000000
  111        3.941266   1.000000
  112        4.091675   1.000000
  113        4.294877   1.000000
  114        4.351560   1.000000
  115        4.424820   1.000000
  116        4.485425   1.000000
  117        4.589672   1.000000
  118        4.861481   1.000000
  119        4.902392   1.000000
  120        4.994106   1.000000
  121        5.145711   1.000000
  122        5.263398   1.000000
  123        5.422595   1.000000
  124        5.654020   1.000000
  125        5.895644   1.000000
  126        8.264286   0.000000
  127        9.312604   0.000000
  128        9.812942   0.000000
  129       10.005060   0.000000
  130       10.287099   0.000000
  131       10.591211   0.000000
  132       10.855306   0.000000
  133       11.095622   0.000000
  134       11.255763   0.000000
  135       11.335259   0.000000
  136       11.480693   0.000000
  137       11.677974   0.000000
  138       11.806914   0.000000
  139       12.026995   0.000000
  140       12.280462   0.000000
  141       12.581050   0.000000
  142       12.737468   0.000000
  143       12.996240   0.000000
  144       13.156076   0.000000
  145       13.287062   0.000000
  146       13.453751   0.000000
  147       13.525361   0.000000
  148       13.630372   0.000000
  149       13.849037   0.000000
  150       14.165294   0.000000
  151       14.247417   0.000000
  152       14.365043   0.000000
  153       14.467410   0.000000
  154       14.731301   0.000000
  155       14.922693   0.000000
  156       14.968676   0.000000
  157       15.141370   0.000000
  158       15.255091   0.000000
  159       15.493880   0.000000
  160       15.594155   0.000000
  161       15.696343   0.000000
  162       15.932194   0.000000
  163       16.006596   0.000000
  164       16.212799   0.000000
  165       16.235069   0.000000
  166       16.372520   0.000000
  167       16.509642   0.000000
  168       16.657261   0.000000
  169       16.737132   0.000000
  170       16.937487   0.000000
  171       17.026987   0.000000
  172       17.166603   0.000000
  173       17.229793   0.000000
  174       17.408048   0.000000
  175       17.529628   0.000000
  176       17.613679   0.000000
  177       17.673570   0.000000
  178       17.965106   0.000000
  179       18.096433   0.000000
  180       18.190832   0.000000
  181       18.357451   0.000000
  182       18.546944   0.000000
  183       18.721866   0.000000
  184       18.822196   0.000000
  185       19.007815   0.000000
  186       19.673106   0.000000
  187       19.881936   0.000000
  188       19.975050   0.000000
  189       20.105778   0.000000
  190       20.202659   0.000000
  191       20.447850   0.000000
  192       20.568298   0.000000
  193       20.898976   0.000000
  194       20.957731   0.000000
  195       21.258203   0.000000
  196       21.513474   0.000000
 
  0.2500000E+00  0.3333333E+00  0.5551115E-16  0.5555556E-01
    1      -10.060397   1.000000
    2       -9.669682   1.000000
    3       -9.526538   1.000000
    4       -9.411852   1.000000
    5       -9.307046   1.000000
    6       -9.257148   1.000000
    7       -9.230204   1.000000
    8       -9.188424   1.000000
    9       -9.155210   1.000000
   10       -9.080577   1.000000
   11       -8.927417   1.000000
   12       -8.895575   1.000000
   13       -8.868822   1.000000
   14       -8.830244   1.000000
   15       -8.509458   1.000000
   16       -7.772411   1.000000
   17       -7.754525   1.000000
   18       -7.750507   1.000000
   19       -7.736711   1.000000
   20       -7.724144   1.000000
   21       -7.716713   1.000000
   22       -7.710657   1.000000
   23       -7.706463   1.000000
   24       -7.690213   1.000000
   25       -7.686053   1.000000
   26       -7.676363   1.000000
   27       -7.672006   1.000000
   28       -7.660513   1.000000
   29       -7.651424   1.000000
   30       -7.643015   1.000000
   31       -7.637866   1.000000
   32       -7.626264   1.000000
   33       -7.610219   1.000000
   34       -7.607849   1.000000
   35       -7.591852   1.000000
   36       -7.585450   1.000000
   37       -7.582121   1.000000
   38       -7.571338   1.000000
   39       -7.566431   1.000000
   40       -7.559207   1.000000
   41       -7.546638   1.000000
   42       -7.538246   1.000000
   43       -7.530591   1.000000
   44       -7.523366   1.000000
   45       -7.507378   1.000000
   46       -7.499339   1.000000
   47       -7.486058   1.000000
   48       -7.481479   1.000000
   49       -7.468732   1.000000
   50       -7.464696   1.000000
   51       -7.448093   1.000000
   52       -7.434882   1.000000
   53       -7.416940   1.000000
   54       -7.413335   1.000000
   55       -7.402557   1.000000
   56       -7.382621   1.000000
   57       -7.377364   1.000000
   58       -7.360940   1.000000
   59       -7.349304   1.000000
   60       -7.340654   1.000000
   61       -7.319396   1.000000
   62       -7.308768   1.000000
   63       -7.279856   1.000000
   64       -7.226372   1.000000
   65       -7.208484   1.000000
   66       -7.177902   1.000000
   67       -7.140382   1.000000
   68       -7.057833   1.000000
   69       -6.907177   1.000000
   70       -6.850877   1.000000
   71       -6.512455   1.000000
   72       -6.414704   1.000000
   73       -6.216970   1.000000
   74       -6.181094   1.000000
   75       -6.112826   1.000000
   76       -5.922938   1.000000
   77       -5.792917   1.000000
   78       -5.702870   1.000000
   79       -5.500397   1.000000
   80       -5.204920   1.000000
   81       -1.097610   1.000000
   82       -0.812681   1.000000
   83       -0.587862   1.000000
   84       -0.429605   1.000000
   85       -0.292656   1.000000
   86       -0.102031   1.000000
   87        0.021693   1.000000
   88        0.157958   1.000000
   89        0.403773   1.000000
   90        0.521214   1.000000
   91        0.763291   1.000000
   92        0.996509   1.000000
   93        1.231058   1.000000
   94        1.491274   1.000000
   95        1.791808   1.000000
   96        1.986913   1.000000
   97        2.087706   1.000000
   98        2.193057   1.000000
   99        2.335348   1.000000
  100        2.536840   1.000000
  101        2.669479   1.000000
  102        2.803435   1.000000
  103        2.962491   1.000000
  104        3.040187   1.000000
  105        3.150314   1.000000
  106        3.309131   1.000000
  107        3.434676   1.000000
  108        3.615091   1.000000
  109        3.776650   1.000000